LAMMPS data file via write_data, version 30 Jul 2021, timestep = 150100

2880 atoms
2 atom types

0 14.227 xlo xhi
0 14.227 ylo yhi
0 14.227 zlo zhi

Masses

1 1
2 1

Pair Coeffs # lj/cut

1 1 1
2 1 1

Atoms # full

2311 0 2 0 1.2315077868457043 1.3553014912328751 1.8004711276011494 1 1 0
1778 0 1 0 0.7619597974950675 0.18601619939974495 1.1951984630921835 0 1 0
141 0 1 0 1.937180827206008 1.299946474480403 1.1111194681673946 0 0 0
2155 0 1 0 2.220444215864395 1.8382574367107052 2.3451017547664827 0 0 0
964 0 1 0 2.168474813299077 2.139626793685171 0.45300554990439085 1 0 0
1253 0 1 0 0.8051732400470882 1.1495123515790668 0.7698502044486966 0 0 1
888 0 1 0 0.1443063176483665 1.148553182699236 1.7094385340120646 0 0 0
961 0 1 0 1.6993424680110463 0.4486813439112887 0.595702670632547 0 1 0
1601 0 1 0 0.30530817681081684 2.1243834377358075 0.7295828774932254 1 0 0
1538 0 1 0 1.2707014696182648 2.2529497885965757 0.7463783002540412 0 1 0
2413 0 2 0 0.3300904900588655 2.0855717046520637 1.702846109408019 0 0 0
324 0 1 0 1.8185771117238396 2.2824226179540106 1.517240610024902 1 1 1
2602 0 2 0 1.5360796566479769 0.3294009858041431 1.719015760583759 0 1 0
1401 0 1 0 0.15747924661314594 1.1804451111056395 0.014516819845589474 1 1 1
159 0 1 0 1.5277680971263752 1.2277363405478539 0.04623049228613736 0 1 0
1056 0 1 0 2.8496908409022135 1.6211905021206683 1.4571424692852886 0 0 0
925 0 1 0 2.383610278585872 0.8529692854598994 1.918749651022726 0 0 1
1735 0 1 0 2.7409229493484317 0.3891352038461074 1.0780390607429293 1 1 0
90 0 1 0 3.597296534802458 2.277288454498146 1.779574036642498 1 0 0
876 0 1 0 2.7116504377329558 1.1107929253622246 0.4254493856985897 0 0 1
2541 0 2 0 3.646122354822141 0.9080167196041091 1.0902807076003038 0 1 0
2188 0 1 0 4.287102325791998 1.7103608070790581 1.0944771807163431 0 1 0
2045 0 1 0 3.54629339294382 0.5184680133159757 0.14491280710501533 0 0 0
1400 0 1 0 3.9746748595804458 1.35722002881801 1.9943632263140965 0 1 0
212 0 1 0 3.358355005974451 0.5715053452512533 1.9101270526924792 0 1 0
822 0 1 0 3.3967583863093544 1.864900818986858 0.696513895673914 0 0 0
1511 0 1 0 4.578973990498765 2.1872955494412323 2.101910669682076 0 1 0
968 0 1 0 4.4098334912760855 0.38838850644478545 1.6024016463872028 0 1 0
1455 0 1 0 2.6975288636276513 14.223431847534709 0.10208006906696394 0 -1 0
1066 0 1 0 4.3561982840345435 1.3597384596220268 0.13013176629877826 0 1 0
2239 0 1 0 5.062118090257826 0.6206507238802881 0.4383286831563414 0 1 0
1364 0 1 0 6.13373065449049 2.000803185168696 1.0233865765610206 0 1 1
2154 0 1 0 5.279046745690901 1.769206224504446 0.465359771834848 0 1 0
2058 0 1 0 7.0739632765781595 1.3399991493700674 0.647765460844084 0 0 0
206 0 1 0 6.7030457347181 2.1379661856211016 0.17037366175090823 0 0 1
1952 0 1 0 6.07474307540182 1.0170183281502496 0.8299831968223323 0 1 1
1149 0 1 0 5.0410519615462475 1.313747844198502 1.6976054948640429 0 0 0
421 0 1 0 6.660661526809058 1.9122688224897135 2.1261925207273165 0 0 0
406 0 1 0 5.93290319830037 0.9123569304822456 1.8538995385720096 0 0 0
2244 0 1 0 6.975019979635632 0.8234201322392943 1.9396530050109158 0 1 0
1048 0 1 0 6.4910892997974265 0.08825140350930412 1.2948733964018637 0 0 1
2697 0 2 0 7.039377217065649 0.3838776791840576 0.3482521726766268 0 1 1
1824 0 1 0 7.605232040614141 1.558742655917334 2.263314416587985 0 1 0
1326 0 1 0 7.99456072635358 0.4512753049094487 2.2163803412668117 0 1 0
2674 0 2 0 8.37169930338365 1.523956807021207 1.6130894951508663 0 1 1
1605 0 1 0 8.685938136569266 2.3377845590964905 2.1250511815555337 0 1 0
1374 0 1 0 7.269140662937204 2.1327116450412933 1.1520189115078525 0 1 1
1787 0 1 0 8.73097006923675 1.7119232763692902 0.40693062507590305 0 1 0
290 0 1 0 8.785762196153543 0.6822608204348838 0.21132210067229412 0 1 0
764 0 1 0 7.816491493117693 0.9922966571333525 0.13295143591236241 0 0 1
585 0 1 0 8.936696487933558 0.23184915601040554 2.051461811633364 0 1 0
1533 0 1 0 9.427273697864823 1.7581196427764687 1.562250333532951 0 1 0
491 0 1 0 7.711886011580624 2.1774736967071107 0.24157788135629796 0 0 1
2751 0 2 0 8.960083809018167 0.7642182193501077 1.175116601652944 0 1 0
1034 0 1 0 7.747719499901651 0.7253579573656314 1.2258589785944662 0 1 0
644 0 1 0 10.5281765414167 2.0893839104400413 0.4761715378267943 0 1 0
2290 0 1 0 10.207453140085025 1.0910856489237477 1.1171346850781332 0 0 0
2367 0 2 0 10.779429966280862 0.08117353472447678 1.3625784771573715 0 0 0
1923 0 1 0 11.076486147949357 1.1576318852902054 0.5762262878078279 0 1 1
873 0 1 0 11.109993840094512 1.1348483879574411 1.595129384493239 -1 0 0
2060 0 1 0 11.192820443573176 1.960200756727804 1.1612410040686993 0 0 1
993 0 1 0 10.404972383633694 1.8141051614915997 1.8540960853763915 0 1 0
2010 0 1 0 9.739708182198845 1.2297172588808218 0.28676531112753134 0 1 1
1722 0 1 0 11.7699756561876 0.34123065175520534 1.7625458629624784 0 1 0
1378 0 1 0 11.419386228493266 2.0012297807176074 0.030376874705073702 -1 0 0
2093 0 1 0 9.887359260095563 0.546835680915876 2.0831041416465537 0 1 0
420 0 1 0 9.832580220534865 0.06873042399385688 0.2099605752025323 0 1 1
1199 0 1 0 12.585915524371599 0.8436476567854749 1.0674280369770655 0 0 0
1834 0 1 0 13.583796310313627 2.055355860145772 0.17861766629658407 -1 0 1
1331 0 1 0 13.573878329515429 1.2539352681840334 0.7447568689613937 -1 0 1
500 0 1 0 13.481622732217733 0.2966519443090956 1.5626903745957343 0 0 0
838 0 1 0 12.00302022094989 1.2902849693593819 0.3513070943228142 0 0 0
529 0 1 0 12.541021998210253 1.8096766657780294 1.0308427128140083 0 0 1
720 0 1 0 12.65080478929347 0.571328799444849 2.177133587359775 0 1 0
1371 0 1 0 14.137611603995117 0.4294279375172625 0.7815376877800632 -1 0 1
2231 0 1 0 13.201392479230178 1.389925624009441 1.8144857053346262 -1 0 1
995 0 1 0 11.922589196908621 0.14724685982497576 0.74435570526288 -1 0 0
86 0 1 0 12.050174679287661 1.5465983116080018 1.8813196906055552 0 1 0
368 0 1 0 0.6627712507351037 3.0048097420586766 0.3788006146463867 0 0 0
2237 0 1 0 1.2553426161635999 3.7657639801870535 0.08668413058626974 1 0 1
2616 0 2 0 0.7614207622413475 3.4741811362953205 2.1942906523169414 1 0 0
2799 0 2 0 0.8806259520645348 4.448432951611004 2.0537494613573934 1 0 1
1543 0 1 0 0.9947990435426706 2.8549258294713162 1.4772596764694654 0 0 0
2563 0 2 0 1.8086871393915382 3.2366427623973815 0.8118752658170969 0 0 0
1201 0 1 0 1.4721995609928697 3.860422241917003 1.6324728691497914 0 0 1
1948 0 1 0 1.7719642388104349 4.335889368686325 0.7732787954034974 0 0 0
2249 0 1 0 0.9997645216860327 4.800763235141994 0.24458373622631754 1 0 1
2011 0 1 0 1.9152606432874457 4.77976627078852 1.9636781818855047 1 0 0
1564 0 1 0 0.5766395730959992 3.8411601826273745 1.1200231801845655 1 0 0
2487 0 2 0 14.097913919180343 4.719814395702543 0.7700947954825006 0 0 0
2022 0 1 0 0.14428409630284156 3.8509159003864206 0.2092109260267381 0 0 1
2618 0 2 0 4.283427446267706 2.3159643411464748 0.10215246769320155 0 1 0
1700 0 1 0 2.7360659691200153 2.863598242657077 1.0907236383012218 0 1 0
773 0 1 0 4.08645775161248 2.752966448403073 1.0419619174194579 0 0 0
1011 0 1 0 3.538488764439041 3.420763937159426 1.4950642756080161 0 0 1
1441 0 1 0 2.735125226393811 3.8148746204914197 0.832142199687569 0 0 0
743 0 1 0 4.717402683607292 4.207381181172329 0.8859007929515907 0 0 1
2546 0 2 0 2.6360386088891397 4.67548436090716 1.3182416290183914 0 1 1
2174 0 1 0 4.795862098745547 3.4770592981554467 1.6849278616372831 0 1 0
1007 0 1 0 3.681403541136148 4.5231766216054705 0.7828638255705448 0 0 0
2203 0 1 0 4.017181277709961 3.5539856087811525 0.43653765581763526 0 0 0
2819 0 2 0 2.7792754709685346 2.830464801556965 2.0902329770366714 0 0 0
2313 0 2 0 2.435263198592427 3.750448685129245 1.9046911118997119 0 1 0
1072 0 1 0 3.855079331329499 3.963905000565354 2.2140427611490168 0 0 0
1175 0 1 0 3.187995946559659 4.730011867897945 2.2415559274096886 0 0 0
517 0 1 0 5.955417491383616 2.867118280661147 0.5240700438731556 0 1 0
1323 0 1 0 5.0212113257919295 2.500730649375068 1.1564350689055416 0 0 0
1272 0 1 0 6.752994787745703 3.0437306096430223 1.2530376330319 0 1 0
1924 0 1 0 5.017548772213069 4.4657995900110485 2.0413420927394546 0 0 1
1781 0 1 0 5.675041214705189 3.4763867518656357 1.2465364805754091 0 0 1
91 0 1 0 5.812558774457426 2.646747777705704 1.8520893253636124 0 0 0
2668 0 2 0 4.996596773030313 4.605073544562582 0.0009069925648486506 0 0 1
1038 0 1 0 5.935169089622242 4.2169924392022775 0.30082319508950717 0 1 0
2075 0 1 0 5.671727567133763 4.4707618112887735 1.2366171391470928 0 0 0
385 0 1 0 4.999035248516887 3.3219921200148397 0.36977147993324194 0 0 0
2137 0 1 0 6.723051530516741 3.883408392521221 0.7778177422326559 0 0 0
2652 0 2 0 6.53159264297457 3.0926965036949268 2.348451810608186 1 0 0
2265 0 1 0 6.396530955440071 4.049038699121261 1.7051978823912353 0 0 0
1014 0 1 0 9.514583629088852 2.285089984201832 0.5387651005072024 0 0 1
536 0 1 0 7.586665774104855 2.5586717060550335 2.0243464297928484 0 0 1
1310 0 1 0 8.327390139821343 2.450321696042049 1.1436667745554576 0 0 1
1870 0 1 0 7.7093041470864385 3.2355997392613935 0.9555629634164445 0 0 0
200 0 1 0 8.022886731030482 3.8307308692955906 0.10419015921561688 0 0 0
1276 0 1 0 9.661700131102737 2.610262012776635 2.1040095096118203 0 1 0
2205 0 1 0 8.75494039164249 3.8239161478288466 0.984031283421671 0 0 0
2654 0 2 0 7.597776898575579 4.151138497632361 1.4939225165810204 0 1 0
1645 0 1 0 9.351283424283029 3.535684068913328 2.3221494423508813 0 1 0
1835 0 1 0 8.409994550799603 3.2442348876605873 1.8082618456012403 0 1 0
1151 0 1 0 8.768968672662012 2.9868011497900775 0.33508299444940726 0 1 1
1350 0 1 0 8.589312027066146 4.140704497053736 2.16264331140113 0 0 1
936 0 1 0 7.584568453571153 3.6232193061541236 2.3987267890556887 0 0 0
2204 0 1 0 7.133540822906226 3.081213640642567 0.2532215641145847 0 0 0
531 0 1 0 9.52201926331287 4.176383237238928 1.450957725047185 0 0 0
867 0 1 0 9.517420291410302 3.1006180894565047 1.1093426621619789 0 0 0
2691 0 2 0 10.46812143439861 2.7099225012371755 1.4655251076754423 0 1 0
1516 0 1 0 9.880376489954777 3.1059923549949837 0.1335015970115759 -1 0 0
1579 0 1 0 10.759873038404931 3.2418654630867927 0.7215772151366804 0 0 1
2503 0 2 0 11.019117977080455 4.3006710662730985 0.6684841868002952 0 0 0
2354 0 2 0 9.925161963347351 4.138047699149474 0.5185848204708906 0 0 0
1125 0 1 0 11.415719629771377 3.4686621464127345 1.4825477849773578 0 0 1
2447 0 2 0 10.531213414197122 4.042811000331219 1.5207792239928015 0 1 0
510 0 1 0 11.764042145758879 4.503271977782555 1.6035726809597706 0 0 0
2662 0 2 0 11.900163351705478 2.8317572864839087 0.5970732233523417 0 0 0
1843 0 1 0 10.44453243005048 3.2326201170343984 2.421144469511479 0 0 0
394 0 1 0 11.05520323120572 4.1444191803905985 2.416085802204007 0 0 0
1572 0 1 0 11.056229274966732 2.4917526713142997 2.314887630884809 -1 0 0
2701 0 2 0 11.452099233854254 3.561229115498989 0.10606643298286009 0 0 0
231 0 1 0 12.906709894079636 2.6808264057169016 0.6640926766916028 0 0 1
1283 0 1 0 12.178479119007873 3.908317170417177 0.788613139084278 0 0 1
1555 0 1 0 0.023652357807592634 3.062089348961142 1.2089896958757462 0 0 0
2780 0 2 0 13.76998277602877 4.247091793897392 1.5352639970059927 -1 0 0
770 0 1 0 13.526866457837091 2.491538678707977 1.6146167437249677 0 0 0
1558 0 1 0 14.00804706377037 3.327517988438234 2.1986949397256343 -1 0 0
1617 0 1 0 12.800763459577235 4.435282291167151 1.3525417629711745 0 0 1
2025 0 1 0 11.887117649980675 2.460868191013093 1.6831752444331431 -1 0 0
685 0 1 0 12.63212416439749 3.338169755629337 1.5090213988790644 -1 0 0
981 0 1 0 13.84907552618731 3.0669106254490046 0.17717789964454272 -1 0 0
338 0 1 0 13.485288279865369 3.815568435567112 0.725358512995103 0 0 0
2457 0 2 0 13.089925087694942 4.6556691528188665 0.43632094136742583 -1 0 1
504 0 1 0 12.091945747805317 3.8433325047450553 2.325752387259149 0 1 1
2337 0 2 0 1.356245836166549 5.635316124468885 0.5528167899857359 0 0 0
2459 0 2 0 0.9564049865176961 5.970738745608795 1.7685525267022084 0 0 0
1960 0 1 0 1.9121156865379625 5.711701988325929 1.6110654133656535 1 0 0
539 0 1 0 1.975780396755616 6.419885023857693 0.3228920896077972 0 0 0
1536 0 1 0 0.29630748085012004 5.622240310151352 0.5732917814074034 0 0 0
1912 0 1 0 1.0713261923431772 5.0485118884726585 1.292348429267514 0 0 0
386 0 1 0 0.5661657948388301 6.957914574692944 1.723800745834001 0 0 0
188 0 1 0 14.178765470457458 6.57485522718898 0.1532393677078625 -1 0 0
2071 0 1 0 0.9578692294625759 6.512323180810826 0.8678659330041646 0 0 0
2721 0 2 0 0.07570684877891701 5.131036649359033 1.7999493704554117 1 0 1
2346 0 2 0 1.7101083390775782 6.685423072526883 1.4629595157362885 0 0 0
1708 0 1 0 3.0206057010033076 4.786563283129285 0.025219227789156307 0 0 1
2608 0 2 0 4.216467548905516 4.935778000495869 1.6236880209114715 0 0 0
1586 0 1 0 2.773485681039284 5.628531430106561 1.9795979738159257 1 0 0
291 0 1 0 2.680970214110862 6.385636665233211 1.120919833097076 0 0 0
1229 0 1 0 2.5420074323790542 5.457797695149258 0.6953910129592172 0 1 0
1915 0 1 0 2.980050483638151 6.5483300588581015 0.16311347670106832 0 0 0
796 0 1 0 3.55236812648699 5.608138019125697 0.18895232889797828 0 0 0
2591 0 2 0 4.6785493150580795 5.279056712749261 0.6123615947581185 0 0 0
1006 0 1 0 3.4713273116618653 6.3686603947876765 1.7716342507274505 0 0 0
1644 0 1 0 3.4650665057594954 5.439837165344748 1.2188171718417742 0 0 0
737 0 1 0 4.432411953060301 5.977008445824558 1.4270807648102917 0 0 0
1794 0 1 0 4.152666498262013 6.347877539622317 0.5383610113938254 0 0 0
910 0 1 0 2.5308429826916647 6.892270944123668 2.043199625647711 0 0 0
914 0 1 0 3.498785477864773 7.169894609315451 0.8820973841804102 0 0 0
106 0 1 0 5.766634734178958 5.237212792344685 0.2860810316012209 0 0 1
738 0 1 0 6.760706089553665 4.724356608068649 2.2142704888771583 0 0 1
1341 0 1 0 5.3330368974248525 6.410615208087912 1.7986423357057795 0 0 0
2112 0 1 0 5.927367009720766 6.039636271118869 1.0408613247013614 0 0 1
1190 0 1 0 5.210885408296726 5.334997672041727 1.4610312485177595 0 0 1
2317 0 2 0 6.340311571834745 6.487175321244618 1.9012868896558033 0 0 1
1684 0 1 0 5.08148917185394 6.356895009561141 0.6888794487075937 0 0 0
1886 0 1 0 5.904156870301498 6.664121805252655 0.1635224381301334 0 0 0
440 0 1 0 6.445369160664494 5.239456463526087 1.4318275122255233 0 0 0
646 0 1 0 6.584064019069421 6.651984569796133 0.8306032711102084 0 0 1
2872 0 2 0 6.904457186026774 5.06690450600006 0.5026115568243937 0 0 1
332 0 1 0 8.133362177157863 4.915942823953284 0.5950257829396594 0 0 1
20 0 1 0 7.227744258375733 5.843057638783258 1.5358377118560125 0 0 0
1819 0 1 0 9.124666278340305 4.822392471791122 0.4730372807371784 0 1 1
2606 0 2 0 7.885642015550445 5.098308541768164 1.7792022772962404 0 0 0
2808 0 2 0 8.712317943671747 4.824881695430721 1.3420579079768455 0 0 0
843 0 1 0 8.270103153818605 5.979038281706337 1.4241241381694298 0 0 0
2132 0 1 0 8.35699989127529 6.486296719101087 0.5064803086966306 0 0 1
508 0 1 0 9.003896506131989 6.6769467072860325 1.2078727617135627 0 0 0
1675 0 1 0 7.579507618468073 5.774830768152603 0.5004506072015407 0 0 1
670 0 1 0 8.220917092655231 6.453085661829076 2.398435288635347 0 0 0
1395 0 1 0 7.730698809573285 6.781551608088038 1.4366004561586185 0 0 0
89 0 1 0 9.476288838487358 6.091064162772018 0.6300031676262765 0 0 0
311 0 1 0 9.346944815829158 5.915246285418058 1.8672721548073643 0 0 1
1460 0 1 0 9.500444520582255 4.80429646561424 2.260277042997889 0 0 0
1049 0 1 0 9.822625152603315 5.218830059921566 1.291224330878711 0 -1 0
2540 0 2 0 10.225684721255169 7.023346485946726 1.636867083629507 0 0 0
1858 0 1 0 10.962766642663107 7.054752685452343 0.5374118280095942 0 0 0
2272 0 1 0 11.25959443733931 6.131781962963378 0.20210978004131358 0 0 1
2501 0 2 0 10.59881417679261 6.123025941609139 1.044882995556916 0 0 0
2566 0 2 0 11.210956086278447 5.243870094115535 1.02819850846594 0 0 1
1471 0 1 0 11.195606250574997 6.514557266743525 2.231787619261175 0 0 0
55 0 1 0 10.676826223120718 5.003056555056758 1.9372002892544888 0 0 0
2151 0 1 0 9.787349244919 7.1414238081625845 0.7109708556840187 0 0 0
1827 0 1 0 10.290951003217863 6.027886763920158 2.095494514895555 0 0 1
2746 0 2 0 11.527317100044533 5.598478371780081 2.0843969678963137 0 0 0
2196 0 1 0 10.378986359073162 5.265103601766092 0.4701020251492615 0 0 0
581 0 1 0 11.737149695190839 6.298124130737543 1.3438065801954617 -1 0 0
1796 0 1 0 10.242449721477296 6.363056352400255 0.15680851819165084 0 0 0
1385 0 1 0 11.873154596688243 4.885199908856788 0.2826595700949863 0 0 0
1099 0 1 0 13.576356741731 5.938916813849198 2.0049052941021666 0 0 0
1750 0 1 0 12.75565198042242 6.010113828446368 0.47650279868379375 0 0 0
1181 0 1 0 12.844999729010755 6.348697194953989 1.3163902693079934 0 0 1
2644 0 2 0 14.178109895260155 6.22206298460273 1.2557351524155909 -1 0 0
1144 0 1 0 13.355287822634487 5.422297640145121 1.148291083704856 0 0 0
1959 0 1 0 13.536703622432551 5.357640514106845 0.12391558747070401 0 0 1
1344 0 1 0 13.51239394799248 6.946889778242456 1.8226679113507114 -1 0 0
1534 0 1 0 12.22036739689535 5.426489508291954 1.2586073577861385 0 0 0
2849 0 2 0 13.329121691310721 4.945400555141579 2.1242469481134925 0 0 1
219 0 1 0 11.984735525597054 7.085783945761901 2.426553112984011 -1 0 0
161 0 1 0 12.095337923709483 6.840450533208194 0.43125396924803333 0 0 0
899 0 1 0 13.313124946810197 7.0090830519111185 0.6069436621691596 0 0 1
102 0 1 0 12.219075910914157 4.89056849282207 2.4913355984281997 0 0 1
1189 0 1 0 12.314001402587769 5.97444686985011 2.3293796351784044 -1 0 0
2316 0 2 0 0.03753431175095886 8.650644859882203 1.335789615298656 1 0 0
1620 0 1 0 1.8098080184244378 7.565385759009093 1.9983687996172075 0 0 0
1173 0 1 0 1.325451942751988 8.340609727043468 0.5050655957839607 0 0 1
237 0 1 0 0.9192801570331951 7.72500140059404 1.2379905147542214 0 0 1
341 0 1 0 0.7486511235799109 7.407808825793803 0.23147635471114839 0 0 0
1404 0 1 0 1.8064746891906833 9.28537458215537 1.0352800584506732 0 0 1
2642 0 2 0 1.6608186581296591 9.13146024182826 14.219942925426809 0 0 -1
1228 0 1 0 2.1162582673858523 8.296748980974192 1.0914374926965316 0 0 0
2452 0 2 0 1.8058246526977482 7.390317652217484 0.42567039220999575 1 0 0
1521 0 1 0 0.8031720280270874 9.164594540199236 0.9191755293254747 0 0 0
2689 0 2 0 1.3318005771709525 8.725100155169255 1.6992263517197101 0 0 0
772 0 1 0 0.39765623792963933 8.509762701404975 0.23673079231192987 0 0 1
2586 0 2 0 3.9053981800528885 7.302690765337446 1.9372609220150092 0 0 1
198 0 1 0 4.629694486676362 7.33832703694657 1.1525055584157533 0 0 0
1356 0 1 0 2.4902315596762103 7.351195423500583 1.144022387392773 0 0 0
635 0 1 0 2.685350350761273 8.724932419529782 1.7381188175005073 0 0 1
2700 0 2 0 3.0750782672832604 7.712762408051192 2.0106812407666266 0 0 0
2614 0 2 0 4.043638737864832 8.200939898817953 1.7897725043104185 0 0 0
1436 0 1 0 3.17736419948832 8.181285384924461 1.041946456226972 0 0 0
2206 0 1 0 4.877537091953782 8.893055060173674 0.9405807781642094 0 0 0
13 0 1 0 3.7220813016975867 9.193886395630756 0.42971302827871327 1 0 1
1581 0 1 0 4.164475654259863 8.299714287461457 0.6240748429195424 0 0 0
499 0 1 0 3.4929735307322862 9.186063559957981 1.4454199832904804 0 0 0
1668 0 1 0 2.6575931219733624 9.153445507192863 0.5146265255992354 0 0 0
2558 0 2 0 2.8034287073494246 7.516205600334246 0.25718721847722104 0 0 0
387 0 1 0 4.452411568998384 9.403793934116301 1.899936297613328 1 -1 1
2336 0 2 0 5.6712687294317785 7.099130578229322 1.089711198302131 0 0 0
872 0 1 0 5.840392129470502 7.346570913924347 2.2008863714358586 0 0 0
2761 0 2 0 5.198015207238076 8.192157375068932 1.8927161902970366 0 0 0
56 0 1 0 5.332830799485581 8.020022446358965 0.5994990023746757 0 0 0
409 0 1 0 5.54464848515195 9.014256723757857 1.662818887126745 0 0 0
1672 0 1 0 6.797134000094399 7.465192392652093 1.6287634630588992 0 0 0
922 0 1 0 5.987126635197962 8.00287367404518 1.3453437074171142 0 0 1
294 0 1 0 6.453287857202169 9.29393889498741 2.110626967791125 0 0 0
1837 0 1 0 5.845237793787585 8.933639390839565 0.7162238024594368 0 0 0
604 0 1 0 6.840235414220736 8.495956950688118 0.48576650740425603 0 0 0
1024 0 1 0 6.88446162272858 9.630556459338331 1.2411372408928731 0 0 0
355 0 1 0 7.010716471530074 8.557623947636172 1.6575305677221002 0 0 0
2522 0 2 0 4.871065281886683 7.26232872789894 2.2596855024540146 0 0 0
249 0 1 0 6.012165266487614 8.338351475462698 2.324517245819836 0 0 0
2053 0 1 0 6.370454126300771 7.5775024596356255 0.5261267130115345 0 0 0
2298 0 1 0 7.516749161386331 6.919941087423847 0.4263860447262365 0 0 1
1459 0 1 0 8.47845006027561 7.405029377913701 1.035828260212264 0 0 1
107 0 1 0 7.653836878415915 7.903745011575469 0.781815980360572 0 0 0
2343 0 2 0 7.737091934749619 7.622001885753292 2.079227384747987 0 0 0
284 0 1 0 8.671888378280475 7.320713484671333 1.964818830964614 0 0 0
2567 0 2 0 7.682888755173798 9.020531042607269 1.1583782602898662 0 0 0
438 0 1 0 8.488394000148118 8.219150110228739 1.658307315656973 0 0 0
2201 0 1 0 9.317519552357625 7.734802800333456 1.3654096746588293 0 0 0
157 0 1 0 9.254706885510773 9.302357150062413 0.5007769870727581 0 0 0
1906 0 1 0 7.962601111183872 8.7249641913589 0.17644818090065398 0 0 0
1990 0 1 0 7.240865926183056 9.545900529174409 0.27393488974414015 0 0 1
638 0 1 0 8.726398486498343 8.343850160813767 0.6788785793001982 0 0 0
44 0 1 0 8.779721175256734 9.269768166803285 1.5438281146693882 0 0 1
917 0 1 0 7.859180156375084 8.791720119482541 2.295235805702725 0 0 0
2800 0 2 0 9.5004335578539 8.97063784681724 2.3370668674749493 0 0 0
481 0 1 0 9.960181492406061 8.646898840946697 1.2524599520430377 0 0 0
1108 0 1 0 11.319737456572279 8.575248471719767 1.6178276863442684 0 0 0
2016 0 1 0 10.628692646917779 7.89700623620905 1.1720200240608383 0 0 0
561 0 1 0 10.828553555566344 8.036091503332342 0.179100060807175 0 0 0
1270 0 1 0 11.55967525499258 8.652627633203387 0.5223316806393556 0 0 1
1908 0 1 0 11.562347626465455 7.410479098296592 1.323706181156545 0 0 1
2365 0 2 0 10.304496386636991 9.002112673357392 14.209384087874719 0 0 0
353 0 1 0 10.995101403130237 7.530295919650993 2.119277302597355 0 0 0
1047 0 1 0 9.985202650026299 7.998514804396152 2.111506994777049 0 0 0
404 0 1 0 10.595952772102807 9.464089100637183 2.0571841371017174 0 0 0
1998 0 1 0 10.749332948487721 9.383338500748078 0.8319845509629124 0 0 1
2492 0 2 0 11.54621035862386 9.305781698424974 2.3414412231772856 0 0 0
2592 0 2 0 9.669270766486932 8.043469120857628 0.4115310056766957 0 0 0
95 0 1 0 12.302537545260947 7.890079604870177 0.7351414254064486 -1 0 0
153 0 1 0 11.73776681397992 9.353318428376415 1.2347049373695078 0 0 1
1898 0 1 0 14.140107945742377 7.675580483661249 0.8751263616449966 -1 0 1
845 0 1 0 12.723019436201717 8.80955283183832 1.3296537002829232 -1 0 1
1762 0 1 0 12.564333927701718 7.232942621570754 1.36499635761292 -1 0 0
1499 0 1 0 13.88210924922934 9.348873997974362 2.0383513689306967 0 0 1
1678 0 1 0 13.355525633666229 7.933630297348474 1.342665353969306 0 0 1
951 0 1 0 14.203478359183043 7.73524247245005 2.127301187032658 -1 0 1
1625 0 1 0 13.27981672072847 8.438066798276378 2.1693425680137297 0 0 0
2238 0 1 0 12.422348914178599 9.391449833629684 0.42301377109773197 0 0 1
149 0 1 0 12.429988350496169 8.049324379912031 1.9512391756764034 0 0 0
1758 0 1 0 13.012573123107702 8.363683214131132 0.3100255159835049 -1 0 1
2142 0 1 0 13.647243838578431 9.097003687936718 0.6917299998062625 0 0 1
2814 0 2 0 12.886207342704758 9.366158104736355 2.270225521193551 -1 0 1
2386 0 2 0 13.842919740344382 7.928201572554383 14.043639322417572 0 0 0
1566 0 1 0 0.5435524335640874 9.67386937832229 1.7338959699098184 1 0 1
442 0 1 0 0.3078939785499092 10.582012703122649 0.8544506771165429 0 0 0
58 0 1 0 1.234528341429008 10.182498402018194 0.7406702467840984 0 0 0
2041 0 1 0 2.138544426453922 10.862602491248794 1.1724619087561337 0 -1 1
299 0 1 0 2.1758383939470627 10.081714397232034 0.2883919341183243 0 0 0
2755 0 2 0 1.2810290603555563 10.590846547130512 1.6778491255973533 0 0 0
1153 0 1 0 2.222384801445281 10.692411366663007 2.146085381474207 0 0 0
553 0 1 0 1.6474162572039035 11.588850436151297 1.6284129660017326 0 0 0
384 0 1 0 0.7404138357998344 11.450367857948248 2.0359323151774995 0 0 0
222 0 1 0 1.547006505967624 9.694911837472564 1.9784552193301126 0 0 0
672 0 1 0 14.148062014790094 10.484725853529824 1.972392780047566 0 0 1
1107 0 1 0 0.13495080187688277 11.806144415957398 0.4721999072354252 0 -1 1
1557 0 1 0 0.1386482795074355 9.673297743369801 0.16557577737908943 0 0 1
566 0 1 0 0.9180864579044018 11.367031089488465 0.9842347525321923 0 0 0
2518 0 2 0 1.754344709477221 11.847002742978518 0.4164447971389443 0 0 1
1121 0 1 0 2.315285444382959 11.063347950836055 0.07627944431604232 0 0 1
2461 0 2 0 3.1800266035329687 9.956236085329287 0.07726841610258421 0 0 0
991 0 1 0 3.9305275865127536 10.255406965088639 0.860471336409282 0 0 0
430 0 1 0 3.6142773524461647 11.392290784843745 0.6437061994465055 0 0 0
1785 0 1 0 2.9628565022775013 10.703167741904343 0.7328463125421516 0 0 1
1411 0 1 0 4.533762063464576 10.41431640712945 1.731918102632046 0 0 0
877 0 1 0 3.457239030879404 10.265717235935934 1.718529449084564 0 0 1
112 0 1 0 3.0684881345718993 11.292519206487833 1.5852063468241195 0 0 0
1345 0 1 0 2.6035187540150115 11.696838515811208 0.8696883449148723 0 0 1
401 0 1 0 4.461566714931496 11.566287213042227 1.551909002297488 0 0 1
2417 0 2 0 2.5878363863371034 9.812163703755587 1.3297524837793695 0 0 0
2766 0 2 0 4.625936284020775 10.982918754111294 0.7071324761601294 0 0 1
2420 0 2 0 2.7698957584877735 9.573889453290564 2.289126605563802 0 0 0
1587 0 1 0 3.7577418307737083 11.029197599958112 2.2987516138042703 0 0 1
323 0 1 0 6.138628523724451 9.866560088724267 0.5895064186237113 0 0 0
1452 0 1 0 4.859927159854512 9.899288229254344 0.8698690946653784 0 0 1
2067 0 1 0 5.783023444146768 10.004065998800366 1.6175069289474084 0 0 1
433 0 1 0 6.411025319817366 11.384663136599414 1.3691669498351398 0 0 0
2628 0 2 0 5.609390549794106 10.634014978791555 0.7975233724414574 0 0 0
265 0 1 0 6.658309328828878 10.461021701652458 1.847920149951393 0 0 0
2377 0 2 0 6.803351334921336 10.57924266385298 0.8220653784648788 0 -1 1
2581 0 2 0 6.101460989731359 11.829890831076066 2.313557498916365 0 0 1
1755 0 1 0 5.460760426104046 11.051678018127665 1.7788394728523038 0 0 0
202 0 1 0 5.314831358818715 11.645354153706048 0.7632248477207363 0 0 1
1848 0 1 0 5.950663884821814 11.286153012138115 0.1310182768457122 0 0 1
482 0 1 0 6.979751563753112 11.788592925911109 0.6087348431149137 0 0 1
903 0 1 0 7.339410295917165 11.235672468419084 1.8238818705633157 0 0 0
1784 0 1 0 8.07086210682853 10.056390191992524 0.7558640331019937 0 0 0
1250 0 1 0 7.672920571558698 10.24332924448029 1.6403761726641521 0 0 0
1126 0 1 0 7.846465948652148 11.207498599913334 0.673148272065619 0 0 0
1950 0 1 0 8.845792624885664 10.488039192323876 1.6573462338243559 0 0 0
2036 0 1 0 9.088348217598329 10.42465909375926 0.7246841860919334 0 0 0
1202 0 1 0 8.635951080676355 11.427348549645506 1.3194186733950484 -1 0 0
1497 0 1 0 8.374538775281826 11.503337032765725 2.3359913092086595 0 0 0
256 0 1 0 9.1113295028106 11.45984420313047 0.4747059928003518 -1 0 1
1052 0 1 0 9.850579925767235 10.639183526900812 1.4927868213707043 0 0 1
1487 0 1 0 9.738356674333716 9.99507100209266 2.3728267680605706 0 0 0
370 0 1 0 9.785376310903214 9.54256858851858 1.371332339771659 0 -1 0
2764 0 2 0 9.723128435425268 11.424938141672785 2.3001344576935745 0 0 0
1833 0 1 0 10.01086468997502 10.104780943878314 0.5813468485585286 0 0 1
1982 0 1 0 11.055683884280127 10.219279182508478 1.6042260223455571 0 0 0
1999 0 1 0 11.005786546095079 10.558053327036044 0.568820140829296 0 0 0
2232 0 1 0 10.38113876786847 10.769836192492683 2.4366724826290196 0 0 0
118 0 1 0 10.009391723909253 11.118594748645606 0.6293853543796759 0 0 1
944 0 1 0 10.502476269165241 11.410257246421134 1.6280209392309781 0 0 0
92 0 1 0 10.998633365299275 11.519459215220564 0.20221080249218173 0 0 1
1974 0 1 0 11.560143912950279 11.10509836587226 1.2773064168675845 0 0 0
2341 0 2 0 11.389608739563347 11.102828502460158 2.3901258116690314 0 0 0
431 0 1 0 13.709793830780892 11.554536453888675 2.1626626528255373 -1 0 1
2502 0 2 0 12.860684168163314 9.821394357565921 1.2977108369767718 0 0 1
1582 0 1 0 13.590053648427789 10.926485657264234 1.1147603066652176 -1 0 1
1719 0 1 0 13.869843952873287 9.847365608809934 1.1740366966642632 -1 -1 0
2421 0 2 0 12.19452506569233 11.22074354800774 14.219113010528643 -1 0 -1
2425 0 2 0 12.039383416264855 10.240123812561146 0.7878099348525914 0 0 1
2469 0 2 0 13.145968945290486 10.498634158198909 2.0327155380937567 -1 0 1
2728 0 2 0 13.154081618872397 10.15243368711336 0.3491066443374791 -1 0 0
2332 0 2 0 12.077533262324954 10.13038594278416 2.0792395228344924 0 0 1
967 0 1 0 13.39363699132093 11.642170888960363 0.3804912014099581 0 0 0
133 0 1 0 12.610919386924122 11.145401780514803 1.0121660688457987 0 0 1
599 0 1 0 12.407825444881873 11.115668621014144 2.193698971929011 0 0 0
238 0 1 0 13.846475876382707 10.783631326389342 0.08873223939014156 -1 0 1
2508 0 2 0 0.2844242984416213 0.12580463158372948 2.2273201237093327 1 1 1
1388 0 1 0 1.0925414657375627 13.464409854910718 1.4845397246517429 1 -1 0
1637 0 1 0 0.9731084259597182 12.387342800273206 1.704137805912473 0 0 1
2235 0 1 0 1.9415498904110748 13.187608404481425 1.9961300858956792 0 0 0
1696 0 1 0 1.2847154260789881 12.744116022503304 0.02451246084508562 0 0 1
759 0 1 0 1.8867786384609542 12.542659098661963 1.0801300335880613 0 0 0
1211 0 1 0 0.13107501464262697 13.670578288795422 1.1167667562999428 1 0 0
1716 0 1 0 1.0081236995359528 13.62626921539102 0.5538043411949156 0 0 1
2222 0 1 0 2.0178084684925155 13.80173931126668 1.0604208515397044 0 0 1
1209 0 1 0 0.0443547848288897 12.05936091567274 1.551852319670176 0 0 0
1930 0 1 0 0.12848325535349733 13.359897834560922 2.129171490023038 1 -1 0