LAMMPS data file via write_data, version 30 Jul 2021, timestep = 100

2880 atoms
2 atom types

0 14.227 xlo xhi
0 14.227 ylo yhi
0 14.227 zlo zhi

Masses

1 1
2 1

Pair Coeffs # lj/cut

1 1 1
2 1 1

Atoms # full

26 0 1 0 0.013906445776457195 1.8151498569377866 0.8476150300630051 0 0 0
162 0 1 0 14.181678888887655 2.354618442643513 2.3757332908287747 -1 0 0
259 0 1 0 14.164614878943203 14.007556287215177 0.5927996783846323 -1 -1 0
400 0 1 0 2.5616981693104215 0.9712589849516722 2.373537032097629 0 0 0
539 0 1 0 0.45085300329060074 1.426904662193471 2.749622876067179 0 0 0
587 0 1 0 1.3214424098698587 2.0233998211273074 0.5804272998404618 0 0 0
626 0 1 0 1.6353643450892839 14.170003902439605 0.5075077187032071 0 -1 0
707 0 1 0 1.5257351965505113 1.649310559104706 1.596811013506816 0 0 0
819 0 1 0 1.7610407574323186 1.0184368258699699 0.57710978361206 0 0 0
981 0 1 0 0.6231692894896234 2.1723480573563427 1.6074302648806877 0 0 0
1095 0 1 0 1.4989334272679242 1.0589644997227299 2.5431397915224596 0 0 0
1378 0 1 0 2.268630548075464 2.290680387165275 1.0850358177685893 0 0 0
1380 0 1 0 0.8016091962600329 14.191285575459277 1.2075641663468983 0 -1 0
1516 0 1 0 14.120938002882884 1.422996254089855 1.8170951836119873 -1 0 0
1577 0 1 0 1.602921475483155 0.5805138557449171 1.5694044872421369 0 0 0
1719 0 1 0 0.5815278151452062 0.6535754754187033 2.016350067470699 0 0 0
1797 0 1 0 0.7921705674695666 0.515162168462595 0.27562860977852127 0 0 0
2805 0 2 0 0.7607295597136448 1.1414500726178984 1.0954124323376102 0 0 0
14 0 1 0 3.3617621302641316 0.9099036385695324 1.0450006742585498 0 0 0
101 0 1 0 3.3074557354058247 1.9742478694596388 1.428134048749389 0 0 0
174 0 1 0 4.289627100169501 1.4764564622292122 1.4613763411165517 0 0 0
292 0 1 0 5.027342319468791 0.822413013002975 1.865747045076894 0 0 0
625 0 1 0 3.1505933391794225 2.479450276059493 0.506451581549184 0 0 0
734 0 1 0 3.8403073286632767 1.6615308438711578 0.520289859569686 0 0 0
1056 0 1 0 2.6527027081933126 1.5590203414573935 0.32982154837373884 0 0 0
1224 0 1 0 4.2471301180398715 0.3918309978279079 1.2920466035550904 0 0 0
1489 0 1 0 3.610461857423991 1.0097028122890086 2.106170577686974 0 0 0
1629 0 1 0 2.4705489865278185 1.2953286373577049 1.3877105327917305 0 0 0
1922 0 1 0 2.270035301326016 2.1291425305044345 2.187398412168725 0 0 0
2020 0 1 0 3.2560798690349944 1.9162206450063959 2.478221975960112 0 0 0
2045 0 1 0 4.842444430804815 1.3419230865010767 0.6195903620502353 0 0 0
2441 0 2 0 4.091576587110291 0.6750300097143315 0.2578262697555251 0 0 0
82 0 1 0 5.694169439584664 0.8921633539847459 1.0780047276487879 0 0 0
230 0 1 0 5.79890263705285 1.9983178424594519 2.9806611589735934 0 0 0
593 0 1 0 7.416522995896535 1.4380792084965666 1.4160917491290554 0 0 0
1236 0 1 0 5.298061210440701 1.9552091049114413 1.9922312160736453 0 0 0
1488 0 1 0 5.976304042681882 1.9393229607207907 0.43013046664397186 0 0 0
1885 0 1 0 7.046375530819724 1.9237916887305255 0.5305884746559854 0 0 0
1892 0 1 0 7.49066102467115 2.962196928385244 2.3804950120781387 0 0 0
2058 0 1 0 6.655936035056644 0.7185667983299195 1.5589742324154163 0 0 0
2155 0 1 0 5.062344617379338 0.28475396936547653 0.4353643194183813 0 0 0
2265 0 1 0 6.644294293941184 2.237104478019489 2.25525833853308 0 0 0
2467 0 2 0 5.9734785328559505 1.209421371521432 2.2865524040105947 0 0 0
2779 0 2 0 6.354085535786614 1.7159302248096322 1.3787443208811943 0 0 0
775 0 1 0 8.436782946768743 1.9983891003379102 1.9120325057086078 0 0 0
837 0 1 0 7.552271477223669 1.7242209289934467 2.4043378340579156 0 0 0
838 0 1 0 9.377484769153583 1.320299332370446 14.142205225709471 0 0 -1
1007 0 1 0 8.102156471877215 1.9575986513266197 0.70996886064273 0 0 0
1235 0 1 0 8.641567524022033 2.7427917756499105 1.2123447396117213 0 0 0
1505 0 1 0 7.59190866117861 0.7848964674394102 0.6081376458795069 0 0 0
1597 0 1 0 9.248663401040762 1.3926502559606464 2.3418336823528643 0 0 0
1680 0 1 0 7.472536129724256 2.492031705975611 1.4369601634866556 0 0 0
1870 0 1 0 8.566315819389004 0.7002876418021531 0.24381108712668403 0 0 0
1948 0 1 0 9.2349712944441 1.7284834658501995 1.109775255126286 0 0 0
2296 0 1 0 7.660788333699173 0.39471613187263965 1.6025696532597629 0 0 0
2535 0 2 0 8.6815173766509 0.11853178322555877 1.3186476271390588 0 0 0
2606 0 2 0 8.340721629471526 0.921199653163684 2.236184816824205 0 0 0
2719 0 2 0 8.419708445076964 1.1105285718967337 1.2216699978772354 0 0 0
90 0 1 0 10.596208897812009 2.2881092651250556 0.9921438740327209 0 0 0
210 0 1 0 9.648996609812087 0.5769156335842424 1.4121873901368602 0 0 0
336 0 1 0 11.859593411783916 0.6414473752730265 1.8880600257882134 0 0 0
441 0 1 0 10.586805719946387 0.2912806090638007 0.5450471500764761 0 0 0
601 0 1 0 9.528465275980837 0.33811228183466957 0.35195730827073646 0 0 0
671 0 1 0 10.490422985784829 14.043756173129779 1.7918731558690895 0 -1 0
905 0 1 0 10.807877220599183 0.8220115810295106 1.6260689295483528 0 0 0
1099 0 1 0 11.704267244868799 1.7737136551975838 1.759981338209984 0 0 0
1149 0 1 0 10.07523533338348 0.7054262052632594 2.372245886060847 0 0 0
1388 0 1 0 11.172227078984964 1.3931163131387896 0.8367760956948594 0 0 0
1464 0 1 0 10.092274436991561 1.5982473764763103 1.749167908220797 0 0 0
1930 0 1 0 10.124648337071365 1.2522255365237809 0.7502096660778431 0 0 0
1935 0 1 0 10.787350958709041 2.297692682002998 2.064675714063068 0 0 0
70 0 1 0 12.894042595969685 1.23282235605292 1.301177010667951 0 0 0
476 0 1 0 13.856728820905495 0.7743700665344887 0.9922684958265675 0 0 0
850 0 1 0 12.194373156513024 1.4825849420700232 0.5458912673146191 0 0 0
924 0 1 0 14.029336295319565 14.192003426016964 1.655102808487085 0 -1 0
1789 0 1 0 12.386321011802162 0.3964785850404835 0.7375829580837983 0 0 0
2227 0 1 0 11.508108666122634 0.8358948158372541 0.004426715195281261 0 0 0
2792 0 2 0 13.252568218665166 1.9217000375070168 0.5554757090824723 0 0 0
2854 0 2 0 12.955570424141587 0.32287783389201413 1.827557593928543 0 0 0
368 0 1 0 1.7440381083153151 4.60955573021146 2.381124939515821 0 0 0
794 0 1 0 13.80555954838674 2.796052367582536 0.9646233121176762 -1 0 0
995 0 1 0 0.9408031308040201 3.118116138909453 2.559237580623051 0 0 0
1120 0 1 0 2.1583101297180827 2.5653965618032037 0.01728850613545917 0 0 0
1132 0 1 0 1.911708715502 4.067816526621739 0.5097023468430167 0 0 0
1175 0 1 0 1.6504586200014797 3.0760605337267415 0.7223174733444746 0 0 0
1203 0 1 0 2.681493329116879 3.378644952575376 0.7101226605052646 0 0 0
1260 0 1 0 2.0434929946541662 3.663701170743183 1.540038282917963 0 0 0
1455 0 1 0 2.8328139540637607 2.9390199569764315 1.7263830799011768 0 0 0
1536 0 1 0 1.2512983212026727 2.1077275703302254 2.5160642283003507 0 0 0
1555 0 1 0 2.8095676808945163 4.011315682895082 2.194499706046499 0 0 0
1573 0 1 0 2.0510455112812065 3.2037103945494554 2.4921368948657916 0 0 0
1818 0 1 0 0.20248122450152867 3.223306966578757 1.7471465002184976 0 0 0
1839 0 1 0 1.0102024991575178 3.6667913105628926 0.15883109412880142 0 0 0
1933 0 1 0 1.4822689212036901 2.7617472651968193 1.695128364534579 0 0 0
2025 0 1 0 1.7201487487787714 4.648999072662596 1.3510354882861755 0 0 0
2047 0 1 0 1.0133971581574843 3.745042682471355 1.2848419921504182 0 0 0
2121 0 1 0 0.6362417465882115 2.8287015802570123 0.7801878511971613 0 0 0
2172 0 1 0 0.7723668338844141 4.143301604077673 2.255594155650058 0 0 0
2336 0 2 0 0.9140762574856636 4.614041803008451 0.6689537875875031 0 0 0
2744 0 2 0 0.12376721187828212 2.354407371915388 14.213547944376595 0 0 -1
89 0 1 0 4.221333419948588 2.3421228177573576 2.0115789600638787 0 0 0
205 0 1 0 4.380013328295606 4.153209871961865 0.2593907604650079 0 0 0
383 0 1 0 4.115329504869643 2.5735246128713136 0.9590919033626328 0 0 0
434 0 1 0 3.266863610276714 4.1575111185058224 0.23614137164082002 0 0 0
465 0 1 0 3.7944258821770003 3.3027171428552005 1.932092797535897 0 0 0
1174 0 1 0 4.828977461288163 3.3759742563334636 0.9403407799738035 0 0 0
1258 0 1 0 4.557306140288836 3.136372271236784 14.14652763557363 0 0 -1
1432 0 1 0 5.126396713319458 2.3071123886575076 1.0218087572222512 0 0 0
1441 0 1 0 4.27321562540368 4.0154301181228655 2.5124475197163174 0 0 0
2203 0 1 0 3.7426681665452866 3.5472602180439523 0.9127306901597629 0 0 0
2289 0 1 0 3.8504395140328014 3.95312942704657 13.568525557068837 0 0 -1
2756 0 2 0 3.695070610219879 4.362365561441443 1.6645789554417243 0 0 0
443 0 1 0 7.330558155420733 3.882780351825187 0.7092745834223658 0 0 0
673 0 1 0 6.761063951401432 2.9217908724427817 0.7154674931278067 0 0 0
874 0 1 0 5.640579043165181 4.8958579780671965 1.465716945138613 0 0 0
1114 0 1 0 6.3045189473036105 4.2207119597472325 1.9631262013450939 0 0 0
1556 0 1 0 5.80386246021401 3.7158261117517806 1.2028534220914922 0 0 0
1733 0 1 0 6.872845889976641 3.415358847392847 1.6349513717051711 0 0 0
2170 0 1 0 6.177313557402885 3.1528991441461827 2.519493010739509 0 0 0
2179 0 1 0 5.429137080829305 4.444075152530336 0.5200048345756897 0 0 0
2205 0 1 0 5.257779041235107 4.057901418250345 2.106667022674809 0 0 0
2413 0 2 0 5.057696230202728 3.0309542023997853 1.9569537906566365 0 0 0
2416 0 2 0 5.682650582371417 2.9677708026491714 0.3644437125478387 0 0 0
2607 0 2 0 6.00933229547262 2.718191674983702 1.492881705699717 0 0 0
59 0 1 0 9.187643761143676 4.18469722243931 14.011898150485074 0 0 -1
189 0 1 0 7.970989992230686 3.5178006412855876 1.521504885976492 0 0 0
281 0 1 0 9.175764058820288 3.700434654319492 1.428310936064126 0 0 0
329 0 1 0 7.855617828509083 2.976874656838714 0.5420821325998137 0 0 0
406 0 1 0 9.645123345067509 2.629937780690463 1.5055855125955317 0 0 0
602 0 1 0 8.595159990754286 4.354802679794565 0.7903818224221048 0 0 0
742 0 1 0 8.487052363030237 4.394058315984628 1.8710450653577968 0 0 0
1759 0 1 0 8.699065446508353 3.065575962406 2.2681658523667707 0 0 0
1853 0 1 0 8.90578928601876 3.403913551154368 0.43968220781484246 0 0 0
2733 0 2 0 7.106236852472239 4.386876794520337 13.946287323629965 0 0 -1
107 0 1 0 10.18968923944157 3.699843050121469 13.988181290251934 0 0 -1
200 0 1 0 10.820148560057966 3.554693410817396 0.6428879029167146 0 0 0
843 0 1 0 9.89686956206314 3.0197599279498872 0.5479413504762228 0 0 0
860 0 1 0 11.52943610428054 2.9465776906418744 1.2923875128090963 0 0 0
864 0 1 0 10.090071446131466 2.0733327569901117 0.0535682027542907 0 0 0
1005 0 1 0 11.358735263511132 3.764597254508009 2.0207724295924887 0 0 0
1197 0 1 0 11.183564168475167 4.752243591428739 2.3675402443437554 0 0 0
1498 0 1 0 11.765951017797935 3.97891622561144 1.0338893840508943 0 0 0
2348 0 2 0 10.535293703998768 3.1967722733028827 1.5780790385227383 0 0 0
2437 0 2 0 9.769277412940623 3.4562523201711515 2.2389285128809058 0 0 0
2616 0 2 0 9.857426660996557 4.158682140902356 0.7039767748146737 0 0 0
32 0 1 0 12.712182250910718 3.294008730511524 0.6751876784964009 0 0 0
394 0 1 0 12.159193010495736 4.4970376303306105 1.9223388983437182 0 0 0
693 0 1 0 13.404580467283207 3.983959707358046 0.15933376024586168 0 0 0
946 0 1 0 13.50798476990202 3.7384412987693505 1.3257905033186486 0 0 0
1230 0 1 0 11.5500304288158 2.315354169039337 0.46203860899572763 0 0 0
1586 0 1 0 0.15696119867222 4.439139591638825 1.4335658310458197 1 0 0
1807 0 1 0 13.373453235850858 2.1292353826901316 1.6402513232922304 0 0 0
1966 0 1 0 12.458240042890191 3.4140645527062667 1.706529484176222 0 0 0
2011 0 1 0 12.776618129793476 4.379618186124744 1.007898178035173 0 0 0
2283 0 1 0 13.381020398807314 3.0777224269782315 2.1660055621142416 0 0 0
2554 0 2 0 12.299831758844334 4.169276701215488 0.11362597341901866 0 0 0
2612 0 2 0 12.432462383077356 2.3593886052841166 1.1671979088926785 0 0 0
2702 0 2 0 13.904636749899156 4.012594961087965 2.257986542756111 0 0 0
29 0 1 0 0.503413357013852 5.417520549291378 0.14258356145295692 0 0 0
119 0 1 0 0.8709160914376973 5.165975103211555 1.745029233361686 0 0 0
122 0 1 0 13.940255798475865 5.517075304728625 1.4463425587529326 -1 0 0
796 0 1 0 1.1501649281505053 6.55994827145892 0.39439642468615427 0 0 0
912 0 1 0 1.7517792584326017 6.317807433727995 1.4918475655098853 0 0 0
1189 0 1 0 13.783932587749725 5.897814470315999 0.4548355462058214 -1 0 0
1200 0 1 0 14.098306687300742 6.584685207090667 1.6095840587059218 -1 0 0
1356 0 1 0 0.5170929501698528 5.974681711359792 1.0142334078092783 0 0 0
1783 0 1 0 2.146664859441299 5.04308721383489 0.32742865982424346 0 0 0
1888 0 1 0 0.9257226305310333 7.084805431563316 1.2900609752957473 0 0 0
2161 0 1 0 1.4289474735769636 5.542770290398983 0.8834682129698139 0 0 0
2642 0 2 0 0.7437864632525065 6.193051556960321 1.9984847999635238 0 0 0
2791 0 2 0 0.10634034974819201 6.823567037040894 0.588905146509375 0 0 0
1 0 1 0 3.4041685193635285 5.379604160161959 1.7965828892288345 0 0 0
5 0 1 0 2.4327475598135515 5.432803961747119 1.3693298170191772 0 0 0
181 0 1 0 5.179196793337159 6.006725833358136 13.995982476446502 0 0 -1
221 0 1 0 3.5431525886552 4.819527027899169 2.7618668059803744 0 0 0
244 0 1 0 3.8842380336721702 5.9219744582827785 0.03582609913971329 0 0 0
421 0 1 0 4.174854252334108 6.073920959940916 1.6168424375082167 0 0 0
426 0 1 0 3.9943678164295076 7.274048906607251 0.15480031949575188 0 0 0
495 0 1 0 3.6577704322985793 6.847621025341198 2.239494551913958 0 0 0
840 0 1 0 4.694201788289968 5.158827243105717 0.13435686802573546 0 0 0
1103 0 1 0 2.7668923672024968 5.686900147667003 13.938450712123572 0 0 -1
1214 0 1 0 4.690675081602981 4.378255966278491 1.2747967072608297 0 0 0
1583 0 1 0 2.75983891016486 6.385203361881415 1.870544746817816 0 0 0
1715 0 1 0 2.321624155343099 6.117258582577592 0.602597565855503 0 0 0
1756 0 1 0 3.136022454740071 5.171311602031902 0.5409160286737615 0 0 0
1821 0 1 0 3.0978539529528946 6.651318856085782 14.201261516584546 0 0 -1
2427 0 2 0 4.5727785883234615 6.454353905343473 0.6251486943743534 0 0 0
2504 0 2 0 2.7510118165499864 4.393860115596738 1.1635346626191652 0 0 0
2507 0 2 0 3.3266388227144037 6.113239145054693 0.951707524258002 0 0 0
2512 0 2 0 4.053565365274117 5.168677183247711 0.9795397397062657 0 0 0
2532 0 2 0 3.812194759111689 7.014755666393954 1.162031589483959 0 0 0
6 0 1 0 4.980221224580672 5.61085091151265 1.0790796712370407 0 0 0
299 0 1 0 4.628655788126848 6.9857820591664925 1.843557998309592 0 0 0
436 0 1 0 6.038205275355526 4.60755933241424 13.897838395916475 0 0 -1
799 0 1 0 6.086360976005022 5.9894735404494766 2.614672156828145 0 0 0
936 0 1 0 7.446284769262081 4.538533309773449 1.5468957492807471 0 0 0
1006 0 1 0 6.109338177828958 5.867067330594965 1.5025512568478037 0 0 0
1016 0 1 0 6.726657707916932 6.656569386242466 1.0758578222158262 0 0 0
1278 0 1 0 4.448775207552443 5.086542037339835 2.0576997897986025 0 0 0
1794 0 1 0 5.785297404289928 5.4414534602036015 0.4682662912141575 0 0 0
1810 0 1 0 6.230028709501611 6.906190645294251 1.973627309634595 0 0 0
1882 0 1 0 6.656814142773765 5.183623261175504 2.123633883506035 0 0 0
2116 0 1 0 7.067362630157934 5.549423560931149 1.1882677546178502 0 0 0
2234 0 1 0 6.526822958587693 4.583964714056465 0.9744922488247145 0 0 0
2540 0 2 0 5.423393393256882 6.641499979864178 1.280875467245589 0 0 0
2562 0 2 0 6.746213646857091 5.2622095646308145 0.1981363505964808 0 0 0
208 0 1 0 8.623719663311096 6.179384303624003 1.8395748289018883 0 0 0
385 0 1 0 9.38499733059349 5.907371840201185 1.0527771047382195 0 0 0
391 0 1 0 9.409900332984325 4.851466998939772 1.4277367682294766 0 0 0
975 0 1 0 9.304312428942598 5.0569711101649615 0.3820323303864896 0 0 0
1080 0 1 0 7.789482219356808 5.4501671462090915 1.9913910701137816 0 0 0
1143 0 1 0 8.462528592090207 5.3617970702751965 1.1404297433212478 0 0 0
1460 0 1 0 7.791096220444195 5.953898828121441 0.5389144227757385 0 0 0
1466 0 1 0 7.541694202904896 5.525127396640485 13.835478626491373 0 0 -1
1497 0 1 0 9.07321760117512 7.527476845289181 0.8284456105769983 0 0 0
1547 0 1 0 7.669383969066063 6.446113955800934 1.50316681682732 0 0 0
2033 0 1 0 8.06869842988973 4.735887050074615 2.7778782814375322 0 0 0
2151 0 1 0 8.021256690137887 6.7767973858971935 2.5295838983161403 0 0 0
2543 0 2 0 8.424495695673269 4.956677811865252 14.022591357731168 0 0 -1
2730 0 2 0 8.583542778630706 6.592370911286343 0.8838365404506365 0 0 0
2734 0 2 0 7.675102269720787 4.877603470144901 0.5386504009849815 0 0 0
154 0 1 0 11.448201811124294 6.643516774343477 1.7778037941967382 0 0 0
240 0 1 0 10.25123736797757 5.376913253887656 0.7881067684438502 0 0 0
343 0 1 0 10.56571012151871 6.435621409515802 0.37154453746882027 0 0 0
353 0 1 0 11.234148079033956 5.340477732853346 1.4831069581312695 0 0 0
531 0 1 0 9.715148166638693 6.906580930210242 1.3595652162362757 0 0 0
616 0 1 0 11.46752331337751 6.144096898297439 0.8072059899522029 0 0 0
878 0 1 0 10.517601946103296 6.756769846700213 2.275093182484248 0 0 0
948 0 1 0 9.671868849408492 6.12003014355801 2.054216491395176 0 0 0
1148 0 1 0 11.389573525768855 7.345806094011573 0.6181461606028595 0 0 0
1433 0 1 0 11.143846893791391 5.370352045175883 0.17599163567801088 0 0 0
1799 0 1 0 10.539689369599712 6.188643275927739 1.3996451148149849 0 0 0
1905 0 1 0 10.924167577460596 4.57793735759325 0.8261198275169951 0 0 0
2548 0 2 0 10.42323097358151 4.236697585677942 1.6812981793404387 0 0 0
167 0 1 0 11.774384743737885 6.719509420258821 14.108685202710717 0 0 -1
215 0 1 0 12.940459504711816 5.034175477054408 0.1711256668092458 0 0 0
503 0 1 0 13.132057788616388 4.96216390907564 1.7883828479945694 0 0 0
713 0 1 0 13.87366810206516 4.830280426654415 0.6189214661479284 0 0 0
904 0 1 0 11.99460474159302 5.067456658706838 0.7862622496430554 0 0 0
1365 0 1 0 12.616061825205547 6.954550165326594 1.8268135629338609 0 0 0
1472 0 1 0 13.148773713482559 6.066677838850532 1.9111423725774284 0 0 0
1601 0 1 0 0.19799841549079117 4.310787105248563 3.156375905052343 1 0 0
1751 0 1 0 12.27365994777962 6.776877169638846 0.8474413877999563 0 0 0
1999 0 1 0 12.135615604693047 5.885970561158577 1.6214449058060263 0 0 0
2097 0 1 0 12.894653160874416 5.6915436094302505 0.9607157315787532 0 0 0
2192 0 1 0 12.817421542523636 6.108295546959636 14.18253147934823 0 0 -1
2364 0 2 0 14.132193119488102 5.021168971366254 2.338949748260477 0 0 0
2559 0 2 0 13.019049432700236 4.358506543048824 2.6526941899496426 0 0 0
2768 0 2 0 13.29986586137376 6.728699356272864 0.9542885848895625 0 0 0
271 0 1 0 0.7861654984341219 8.747528196337493 1.1483563691844552 0 0 0
408 0 1 0 1.9837649038223746 7.1551918094936235 0.8250314633337184 0 0 0
541 0 1 0 0.0067155083750773045 9.068306976994178 1.9283622333847361 0 0 0
910 0 1 0 2.363403944156864 9.413929920433628 0.45164410199876914 0 0 0
1051 0 1 0 1.77614192253103 8.976361526249105 1.3058217801647491 0 0 0
1243 0 1 0 1.9703467412763287 9.577422725835639 2.17615667910677 0 0 0
1299 0 1 0 0.4361742785500823 7.2827385519839005 2.2392102770942244 0 0 0
1384 0 1 0 13.544520655271148 7.438784025797242 1.7964970522757366 -1 0 0
1470 0 1 0 2.307863014566339 8.558854943656971 2.2029554782841765 0 0 0
1936 0 1 0 1.7180001813192407 8.165555490004689 0.6135353283945597 0 0 0
2395 0 2 0 0.8461503324038895 8.466502269409776 2.149948600142781 0 0 0
2421 0 2 0 0.21913126723415727 7.910498850389013 1.4250131588385357 0 0 0
2513 0 2 0 2.6239907409441257 8.315298245134242 1.161036248276676 0 0 0
2638 0 2 0 1.6336596608981 7.878128156532973 1.6493973783050928 0 0 0
2832 0 2 0 2.383887597226648 7.464624730201143 2.4158984599001485 0 0 0
69 0 1 0 4.450469717831438 8.816365892385484 0.3391364143957334 0 0 0
136 0 1 0 4.8376418542530475 7.7464975918929175 2.5437936788320274 0 0 0
430 0 1 0 3.7608301446723016 8.150509313797237 0.8348898893625244 0 0 0
484 0 1 0 3.0781383511899545 7.541681665118662 1.6716887832346918 0 0 0
933 0 1 0 3.4072912215924807 9.101679410755699 0.40859189315597527 0 0 0
2255 0 1 0 4.08391103184258 7.874827138032507 1.823298881260711 0 0 0
2522 0 2 0 2.973934494187738 7.479073780575534 0.5895998280833288 0 0 0
2689 0 2 0 3.9804252094209476 9.171659742830043 1.2733320727622937 0 0 0
2764 0 2 0 4.449644774898708 8.958959726282748 2.1868776405545596 0 0 0
20 0 1 0 4.821424451325012 8.443962202862835 1.3098343858850323 0 0 0
46 0 1 0 5.771778227189136 7.502414483381621 0.710789345430775 0 0 0
229 0 1 0 5.890218965291704 7.693330943630828 2.7300136310216114 0 0 0
261 0 1 0 5.501381165440478 7.6786836760517945 1.71648379673604 0 0 0
515 0 1 0 4.733818665232781 7.496770661907138 0.8861370970774638 0 0 0
1599 0 1 0 5.196827257986325 8.12612143071866 0.04566553589273051 0 0 0
1886 0 1 0 5.01717843220694 9.47942819331891 1.2677201979597041 0 0 0
2029 0 1 0 6.357508413796172 8.367343994887598 0.4769834377313007 0 0 0
2328 0 2 0 5.503642207893574 9.07857967961051 0.41585319031909634 0 0 0
2411 0 2 0 5.864096783240092 8.672503685928257 1.3610681070785615 0 0 0
2700 0 2 0 5.43853676250292 8.60141988452293 2.3258472596034805 0 0 0
481 0 1 0 7.659174624516062 7.013826824553724 0.5814411460923223 0 0 0
572 0 1 0 9.167146210897272 8.079266323156888 14.200059480534524 0 0 -1
651 0 1 0 8.434515417589616 9.477830881893667 0.8639953365258037 0 0 0
768 0 1 0 8.185323269423673 7.8265038582365305 2.458372817793362 0 0 0
831 0 1 0 8.344124132134395 8.343462440560444 0.8457599362210287 0 0 0
1225 0 1 0 7.783557593366361 9.450869982749078 1.7316216937403084 0 0 0
1297 0 1 0 8.160421661744266 7.406230530167823 1.4712730530157743 0 0 0
1796 0 1 0 7.568819471953343 8.296653707011105 1.6632857354713149 0 0 0
2016 0 1 0 6.795294949645332 9.055351729449349 1.7188596399960625 0 0 0
2225 0 1 0 6.577116790302097 7.792636466564353 1.3763958857603709 0 0 0
2795 0 2 0 9.26815986871052 8.846524681414913 0.9680151838886324 0 0 0
2879 0 2 0 7.3529535187856165 8.03582657066037 0.6370773930108404 0 0 0
86 0 1 0 11.292383155360483 9.278134109943803 1.3937830892951495 0 0 0
460 0 1 0 10.10412303579301 8.540475918556535 0.27512911335999685 0 0 0
585 0 1 0 9.943919234035167 7.623719103271319 2.1587154063744993 0 0 0
716 0 1 0 9.958167675537254 8.095309304256961 1.2302463215047477 0 0 0
1144 0 1 0 11.398977000799349 8.88697741220588 0.26826826519432617 0 0 0
1204 0 1 0 11.581380558261303 8.477599759974057 2.015424937299825 0 0 0
1824 0 1 0 10.264071204151849 9.157009343778414 1.119194841424993 0 0 0
1858 0 1 0 10.687717048428492 7.306593667647193 1.3814441523279157 0 0 0
2207 0 1 0 11.828317220311096 7.607776395440677 1.5290608726118036 0 0 0
2232 0 1 0 11.00618149555829 8.277610231760248 1.0443388657545252 0 0 0
2468 0 2 0 10.530544130707936 8.58862302273134 2.0020422298771616 0 0 0
125 0 1 0 13.505886106478018 9.571509043077633 0.10531298416049656 0 0 0
977 0 1 0 13.770097381194303 7.683690624069868 0.6303911479115809 0 0 0
1108 0 1 0 12.120827228572814 8.607786256493382 1.08245211420197 0 0 0
1564 0 1 0 13.500913812220126 8.421681735368038 1.4092941830397014 0 0 0
1595 0 1 0 12.641965595509134 8.265876271909244 1.9830999413980022 0 0 0
2452 0 2 0 12.51267973168212 9.132660763764573 14.052161121764955 0 0 -1
2528 0 2 0 12.076692417972435 9.601270681854594 0.6757688206118582 0 0 0
2762 0 2 0 13.183048497336422 8.487158758560303 0.32012993744619167 0 0 0
2843 0 2 0 12.769934105026525 7.729604902871677 1.0237156667648606 0 0 0
198 0 1 0 0.6763210376864316 9.717000050665842 0.7261949288431987 0 0 0
453 0 1 0 0.6638521269443312 10.512862850544774 1.378003355800361 0 0 0
478 0 1 0 1.234465108333387 10.90194518132366 3.0971505834170285 0 0 0
488 0 1 0 3.012877603730252 9.560728100768664 2.4698760521451217 0 0 0
685 0 1 0 14.066439518438598 9.057403185727008 0.8366050503847652 -1 0 0
739 0 1 0 0.7958821703918155 10.89815678119176 0.31899536961101865 0 0 0
759 0 1 0 1.5900383987509388 10.656914980843599 2.0806282215433725 0 0 0
813 0 1 0 14.059261074897021 11.418504171279743 0.09004301047859897 -1 0 0
930 0 1 0 1.7546332569311072 10.060070529098743 1.229438040034025 0 0 0
1298 0 1 0 13.931792527377317 9.937690986405794 1.4292809234671644 -1 0 0
2126 0 1 0 1.2678169572410936 11.345199864395179 1.2557219912732107 0 0 0
2159 0 1 0 0.9558642879252394 9.57440840192612 1.858827272167724 0 0 0
2524 0 2 0 0.24703346364119763 11.454440149869251 1.1083507713590819 0 0 0
2722 0 2 0 1.178726254781302 11.619569411415812 2.2768443605358857 0 0 0
188 0 1 0 2.6645980184605884 10.304193417422365 1.7633023088921473 0 0 0
638 0 1 0 4.405395364062335 11.303628148838119 1.2327316732429552 0 0 0
991 0 1 0 2.5399139301375846 10.488121588808118 0.5372899517260962 0 0 0
1437 0 1 0 3.357569901261169 11.008584233577954 1.3310457030918672 0 0 0
1762 0 1 0 4.326666737355799 10.262402875556813 1.061128764960141 0 0 0
1915 0 1 0 2.77828283123682 9.290571149320845 1.463984778694133 0 0 0
2106 0 1 0 3.807934369320592 10.886528431498899 0.37871992983787034 0 0 0
2374 0 2 0 2.7566384616710247 11.251280446169432 2.206986734450739 0 0 0
2817 0 2 0 3.3408535722014925 10.001707997757316 0.9835578028819867 0 0 0
323 0 1 0 6.456179934460571 9.414600348058341 0.7493054976350922 0 0 0
621 0 1 0 6.788407154687736 10.284120709114742 0.07379578578264988 0 0 0
750 0 1 0 6.2034759796106655 10.77379487632988 1.656437901222959 0 0 0
961 0 1 0 5.969096730298561 9.748265591505914 1.6535302711379936 0 0 0
1835 0 1 0 6.8303100936428365 11.506378308289364 14.165526824197038 0 0 -1
2180 0 1 0 4.772663301500096 9.83259651980068 0.2287359866896875 0 0 0
2343 0 2 0 5.236406043578964 10.575280478450882 1.411039479260445 0 0 0
94 0 1 0 8.83187122712264 9.720456243575656 1.8711545458109051 0 0 0
207 0 1 0 8.617360478631502 11.307503356992363 0.8231425562844891 0 0 0
245 0 1 0 7.06258324720908 10.886107272749541 2.1874938716639627 0 0 0
347 0 1 0 6.989932488003241 10.983956612054698 0.8688351881984644 0 0 0
895 0 1 0 9.0436040786996 10.36901810736437 1.1038487451578602 0 0 0
965 0 1 0 7.7218872312282265 9.779138229256914 0.08511002902756466 0 0 0
1021 0 1 0 8.636114944913544 10.285073918386505 0.13362547680793546 0 0 0
1032 0 1 0 8.012406094940394 10.415908894973626 2.0371805145723076 0 0 0
1066 0 1 0 7.939628263319237 10.429416568913627 0.9858308944012472 0 0 0
1524 0 1 0 8.773176753021565 11.160713055080189 1.907230687299694 0 0 0
1645 0 1 0 7.429690828326316 9.06479185243258 0.8345642619883387 0 0 0
1672 0 1 0 7.709356444634622 10.861039212802913 0.03725523597435181 0 0 0
1838 0 1 0 7.7705389519135215 11.359018032456556 1.5593894605947534 0 0 0
2099 0 1 0 6.998901570624167 10.07877782114611 1.4179225762270729 0 0 0
66 0 1 0 11.54797386441655 11.358222016440536 1.8009617213371467 0 0 0
176 0 1 0 9.545256822631423 9.76694086628944 0.3675193175966726 0 0 0
589 0 1 0 10.780844570317516 10.726154352564198 0.11135429553129099 0 0 0
1045 0 1 0 10.19400107110956 10.284379899930151 1.0296664093738428 0 0 0
1126 0 1 0 11.357450972186484 10.270660975318215 1.9575855785444212 0 0 0
1211 0 1 0 11.826060292586728 11.576506764825881 0.7199898852702848 0 0 0
1400 0 1 0 9.690695295173029 11.516741573677198 2.308076961880984 0 0 0
1909 0 1 0 10.584624758537283 9.604194040406858 0.22256846918283935 0 0 0
2117 0 1 0 12.059121390478207 11.798385464095242 2.6202958840373705 0 0 0
2220 0 1 0 10.539790881619618 10.963345981729 2.0251011069560794 0 0 0
2243 0 1 0 12.253982878938185 10.727596306097478 2.354282474512565 0 0 0
2316 0 2 0 11.396298312457224 11.025887314164088 2.8481234000207176 0 0 0
2321 0 2 0 11.242436185011265 10.18528910200312 0.8741855282556056 0 0 0
2322 0 2 0 9.607281926619994 10.882751618111852 0.20480123595745192 0 0 0
2451 0 2 0 9.54623691759793 8.9347372406739 2.0991633959595726 0 0 0
2501 0 2 0 9.681299191928836 11.17220608074877 1.2623822834058964 0 0 0
2567 0 2 0 10.3518846595268 9.764179466872845 1.956790954970544 0 0 0
2650 0 2 0 10.293775865706845 11.732159669781998 0.44733966667875563 0 0 0
2695 0 2 0 10.868640843609606 11.1599650444084 1.0617346287034843 0 0 0
17 0 1 0 12.264975588668825 9.754431090418764 1.6927685468730862 0 0 0
149 0 1 0 13.077759471838247 10.437444400807868 1.8092202698720914 0 0 0
404 0 1 0 13.434037927970792 11.229853255018618 1.0424921534626934 0 0 0
645 0 1 0 13.181761833670738 9.269469626885307 2.072469497829742 0 0 0
669 0 1 0 0.5575891019553886 10.444711205758898 2.4127687101760764 1 0 0
830 0 1 0 13.00953981290744 9.2726807794684 1.0311585131323056 0 0 0
962 0 1 0 12.157865966023909 10.657257265868452 1.148629127237984 0 0 0
1034 0 1 0 14.004557398510688 10.92092321173088 1.906446527157601 0 0 0
1660 0 1 0 0.15255016736223892 11.172666272198905 3.126157978379266 1 0 0
2093 0 1 0 13.806935129117482 10.011319256431843 2.5168561265045555 0 0 0
2362 0 2 0 12.469376142667906 10.190702968299622 14.145861022702936 0 0 -1
2432 0 2 0 13.083247403112335 10.287654202558866 0.7613177016221917 0 0 0
2521 0 2 0 12.585238587446474 11.49759295377064 1.6573681189133729 0 0 0
2596 0 2 0 13.214329911069411 11.342026386718798 2.5106617392674293 0 0 0
58 0 1 0 0.8920686462090033 12.004568191596984 0.4313675480505873 0 0 0
95 0 1 0 13.963648043411402 12.859793197482796 2.453741376472975 -1 0 0
138 0 1 0 0.5236039629249868 13.368326129508617 1.8362692857819418 0 0 0
155 0 1 0 2.2991678808946836 11.22844212791854 1.2714399968070043 0 0 0
250 0 1 0 0.8074020270793592 12.327255833577846 1.486489613067231 0 0 0
386 0 1 0 2.4847259390569665 0.26156879048856946 1.0876310087164722 0 1 0
553 0 1 0 1.7660544661732547 12.581977053554647 1.9666316996893052 0 0 0
1030 0 1 0 1.8060700677458121 12.219100444780722 0.9773761832814521 0 0 0
1059 0 1 0 1.3230112130504361 13.232290912600105 1.1407242582714816 0 0 0
1354 0 1 0 0.12954267161687824 11.865579313935509 2.2167725316862965 0 0 0
1407 0 1 0 2.2850475468294964 14.104027985030081 2.0813516444597844 0 0 0
1614 0 1 0 2.333204110117009 13.388890507494365 1.2516095159700156 0 0 0
1636 0 1 0 1.7842485307222826 11.208086045153207 0.3356159931127152 0 0 0
2092 0 1 0 0.378988690544141 12.988676186129043 0.7704928728876327 0 0 0
2292 0 1 0 1.671538074543716 13.187176101545612 0.1307354757250036 0 0 0
2511 0 2 0 1.2816029245034852 14.204547886022786 2.420550505191813 0 0 0
2541 0 2 0 0.8595934202290053 12.613417589123221 2.5269804051083735 0 0 0
159 0 1 0 2.6807119634479695 13.115149825578547 2.185160895901314 0 0 0